
                                 *****************
                                 * O   R   C   A *
                                 *****************

                                            #,                                       
                                            ###                                      
                                            ####                                     
                                            #####                                    
                                            ######                                   
                                           ########,                                 
                                     ,,################,,,,,                         
                               ,,#################################,,                 
                          ,,##########################################,,             
                       ,#########################################, ''#####,          
                    ,#############################################,,   '####,        
                  ,##################################################,,,,####,       
                ,###########''''           ''''###############################       
              ,#####''   ,,,,##########,,,,          '''####'''          '####       
            ,##' ,,,,###########################,,,                        '##       
           ' ,,###''''                  '''############,,,                           
         ,,##''                                '''############,,,,        ,,,,,,###''
      ,#''                                            '''#######################'''  
     '                                                          ''''####''''         
             ,#######,   #######,   ,#######,      ##                                
            ,#'     '#,  ##    ##  ,#'     '#,    #''#        ,####,    ,#,          
            ##       ##  ##   ,#'  ##            #'  '#       #'       ,# #          
            ##       ##  #######   ##           ,######,      #####,      #          
            '#,     ,#'  ##    ##  '#,     ,#' ,#      #,     #,   #      #          
             '#######'   ##     ##  '#######'  #'      '#     '####' #    #          



                #########################################################
                #                        -***-                          #
                #          Department of theory and spectroscopy        #
                #                                                       #
                #                      Frank Neese                      #
                #                                                       #
                #     Directorship, Architecture, Infrastructure        #
                #                    SHARK, DRIVERS                     #
                #        Core code/Algorithms in most modules           #
                #                                                       #
                #        Max Planck Institute fuer Kohlenforschung      #
                #                Kaiser Wilhelm Platz 1                 #
                #                 D-45470 Muelheim/Ruhr                 #
                #                      Germany                          #
                #                                                       #
                #                  All rights reserved                  #
                #                        -***-                          #
                #########################################################


                         Program Version 6.1.0-f.0  -   RELEASE   -


 With contributions from (in alphabetic order):
[Max-Planck-Institut fuer Kohlenforschung]                               
  Daniel Aravena         : Magnetic Suceptibility                        
  Michael Atanasov       : Ab Initio Ligand Field Theory (pilot matlab implementation)
  Alexander A. Auer      : GIAO ZORA, VPT2 properties, NMR spectrum      
  Ute Becker             : All parallelization in ORCA, NUMFREQ, NUMCALC 
  Giovanni Bistoni       : ED, misc. LED, open-shell LED, HFLD           
  Dmytro Bykov           : pre 5.0 version of the SCF Hessian            
  Marcos Casanova-Páez   : Triplet and SCS-CIS(D). UHF-(DLPNO)-IP/EA/STEOM-CCSD. UHF-CVS-IP/STEOM-CCSD   
  Vijay G. Chilkuri      : MRCI spin determinant printing, contributions to CSF-ICE 
  Pauline Colinet        : FMM embedding                                 
  Dipayan Datta          : RHF DLPNO-CCSD density                        
  Achintya Kumar Dutta   : EOM-CC, STEOM-CC                              
  Nicolas Foglia         : Exact transition moments, OPA infrastructure, MCD improvements    
  Dmitry Ganyushin       : Spin-Orbit,Spin-Spin,Magnetic field MRCI      
  Miquel Garcia-Rates    : C-PCM and meta-GGA Hessian, CCSD/C-PCM, Gaussian charge scheme 
  Tiago L. C. Gouveia    : GS-ROHF, GS-ROCIS                             
  Yang Guo               : DLPNO-NEVPT2, F12-NEVPT2, CIM, IAO-localization        
  Andreas Hansen         : Spin unrestricted coupled pair/coupled cluster methods 
  Ingolf Harden          : AUTO-CI MPn and infrastructure                
  Benjamin Helmich-Paris : MC-RPA, TRAH-(SCF,CASSCF), AVAS, COSX integrals, SCF dyn. polar., MC-PDFT, srDFT 
  Lee Huntington         : MR-EOM, pCC                                   
  Robert Izsak           : Overlap fitted RIJCOSX, COSX-SCS-MP3, EOM     
  Riya Kayal             : Wick's Theorem for AUTO-CI, AUTO-CI UHF-CCSDT 
  Emily Kempfer          : AUTO-CI RHF CISDT and CCSDT, approximate NEVPT4
  Christian Kollmar      : KDIIS, OOCD, Brueckner-CCSD(T), CCSD density, CASPT2, CASPT2-K, improved NEVPT2 
  Axel Koslowski         : Symmetry handling                             
  Simone Kossmann        : meta-GGA functionals, TD-DFT gradient, OOMP2, (MP2 Hessian; deprecated post 5.0) 
  Lucas Lang             : DCDCAS, Hyperfine gauge corrections, ICE-SOC+SSC
  Marvin Lechner         : AUTO-CI (C++ implementation), FIC-MRCC        
  Spencer Leger          : CASSCF response                               
  Dagmar Lenk            : GEPOL surface, SMD, ORCA-2-JSON               
  Dimitrios Liakos       : Extrapolation schemes; Compound Job, Property file
  Dimitrios Manganas     : Further ROCIS development; embedding schemes. LFT, Crystal Embedding 
  Dimitrios Pantazis     : SARC Basis sets                               
  Anastasios Papadopoulos: AUTO-CI, single reference methods and gradients 
  Taras Petrenko         : pre 6.0 DFT Hessian and TD-DFT gradient,  ECA, NRVS 
  Petra Pikulova         : Analytic Raman intensities                    
  Peter Pinski           : DLPNO-MP2, DLPNO-MP2 Gradient                 
  Shashank Vittal Rao    : ES-AILFT, MagRelax                            
  Christoph Reimann      : Effective Core Potentials                     
  Marius Retegan         : Local ZFS, SOC                                
  Christoph Riplinger    : Optimizer, TS searches, QM/MM, DLPNO-CCSD(T), (RO)-DLPNO pert. Triples 
  Michael Roemelt        : Original ROCIS implementation, recursive CI coupling coefficients
  Masaaki Saitow         : Open-shell DLPNO-CCSD energy and density      
  Barbara Sandhoefer     : DKH picture change effects                    
  Yorick L. A. Schmerwitz: GMF and freeze-and-release deltaSCF, NEB S-IDPP initial path                    
  Kantharuban Sivalingam : CASSCF convergence/infrastructure, NEVPT2, NEVPT3, NEVPT4(SD), FIC-MRCI and CEPA variants
  Bernardo de Souza      : ESD, SOC TD-DFT                               
  Georgi L. Stoychev     : AutoAux, RI-MP2 NMR, DLPNO-MP2 response, X2C  
  Van Anh Tran           : RI-MP2 g-tensors                              
  Willem Van den Heuvel  : Paramagnetic NMR                              
  Zikuan Wang            : NOTCH, Electric field optimization            
  Frank Wennmohs         : Technical directorship and infrastructure     
  Hang Xu                : AUTO-CI-Response properties                   
                                                                         
[FACCTs GmbH]                                                            
  Markus Bursch, Nicolas Foglia, Miquel Garcia-Rates, Ingolf Harden, Hagen Neugebauer, Anastasios Papadopoulos, 
  Christoph Riplinger, Bernardo de Souza, Georgi L. Stoychev                                                    
                                                                 
  APM, various basis sets, CI-OPT, improved COSX, DLPNO-Multilevel,           
  DOCKER, DRACO, updates on ESD, Fragmentator, GOAT, IRC, LR-CPCM, L-BFGS, MBIS, meta-GGA TD-DFT gradient, ML-optimized integration grids, 
  MM, NACMEs, nearIR, NEB, NEB-TS, NL-DFT gradient (VV10), 2- and 3-layer-ONIOM, interface openCOSMO-RS, QMMM,   
  Crystal-QMMM, RESP, rigid body optimization, SF, symmetry and pop. for TD-DFT, various functionals, SOLVATOR                                   
                                                                         
[Other institutions]                                                     
  V. Asgeirsson          : NEB                                           
  Christoph Bannwarth    : sTDA-DFT, sTD-DFT, PBEh-3c, B97-3c, D3        
  Giovanni Bistoni       : ETS/NOCV, ADLD/ADEX, COVALED                  
  Martin Brehm           : Molecular dynamics                            
  Ronald Cardenas        : ETS/NOCV                                      
  Martina Colucci        : COVALED                                       
  Sebastian Ehlert       : rSCAN, r2SCAN, r2SCAN-3c, D4, dhf basis sets  
  Marvin Friede          : D4 for Fr, Ra, Ac-Lr                          
  Lars Goerigk           : TD-DFT with DH, B97 family of functionals     
  Stefan Grimme          : VdW corrections, initial TS optimization, DFT functionals, gCP, sTDA/sTD-DF 
  Waldemar Hujo          : DFT-NL                                        
  H. Jonsson             : NEB                                           
  Holger Kruse           : gCP                                           
  Marcel Mueller         : wB97X-3c, vDZP basis set                      
  Hagen Neugebauer       : wr2SCAN, Native XTB                           
  Gianluca Regni         : ADLD/ADEX                                     
  Tobias Risthaus        : pre 6.0 range-separated hybrid DFT and stability analysis
  Lukas Wittmann         : regularized MP2, r2SCAN double-hybrids, wr2SCAN        
                                                                         
We gratefully acknowledge several colleagues who have allowed us to      
interface, adapt or use parts of their codes:                            
  Ed Valeev, F. Pavosevic, A. Kumar             : LibInt (2-el integral package), F12 methods 
  Garnet Chan, S. Sharma, J. Yang, R. Olivares  : DMRG                   
  Ulf Ekstrom                                   : XCFun DFT Library      
  Mihaly Kallay                                 : mrcc  (arbitrary order and MRCC methods)
  Frank Weinhold                                : gennbo (NPA and NBO analysis)           
  Simon Mueller                                 : openCOSMO-RS                            
  Christopher J. Cramer and Donald G. Truhlar   : smd solvation model                     
  S Lehtola, MJT Oliveira, MAL Marques          : LibXC Library                           
  Liviu Ungur et al                             : ANISO software                          


 Your calculation uses the libint2 library for the computation of 2-el integrals
 For citations please refer to: http://libint.valeyev.net

 Your ORCA version has been built with support for libXC version: 7.0.0
 For citations please refer to: https://libxc.gitlab.io

 This ORCA versions uses:
   CBLAS   interface :  Fast vector & matrix operations
   LAPACKE interface :  Fast linear algebra routines
   SCALAPACK package :  Parallel linear algebra routines
   Shared memory     :  Shared parallel matrices
   BLAS/LAPACK       :  OpenBLAS 0.3.29  USE64BITINT DYNAMIC_ARCH NO_AFFINITY Haswell SINGLE_THREADED
        Core in use  :  Haswell
   Copyright (c) 2011-2014, The OpenBLAS Project


  ***********************************
  * Starting time: Mon Sep 15 22:23:56 2025
  * Host name:     debian
  * Process ID:    22499
  * Working dir.:  /home/jonathan/Trabajo-Moleculas/orca_outputs/methane
  ***********************************

Warning: RI is on but no J-basis has been assigned. Assigning Def2/J (nothing to worry about!)
================================================================================

----- Orbital basis set information -----
Your calculation utilizes the basis: 6-31+G(d,p)
   H-He, Li-Ne : W. J. Hehre, R. Ditchfield and J.A. Pople, J. Chem. Phys. 56, 2257 (1972).
                 Note: He and Ne are unpublished basis sets taken from the Gaussian program.
                 Note: Li and B from J. D. Dill and J. A. Pople, J. Chem. Phys. 62, 2921 (1975).
   Na - Ar     : M. M. Francl, W. J. Pietro, W. J. Hehre, J. S. Binkley, M. S. Gordon, 
                 D. J. DeFrees and J. A. Pople, J. Chem. Phys. 77, 3654 (1982).
   K - Zn      : V. A. Rassolov, J. A. Pople, M. A. Ratner, and T. L. Windus, J. Chem. Phys. 109, 1223 (1998).
   Additional Pol./Diff. from the 6-311G equivalent.

----- AuxJ basis set information -----
Your calculation utilizes the auxiliary basis: def2/J
   H-Rn: F. Weigend, Phys. Chem. Chem. Phys. 8, 1057 (2006).
   Fr-Lr: K. Eichkorn, F. Weigend, O. Treutler, R. Ahlrichs; Theor. Chem. Acc. 97, 119 (1997).

================================================================================
                                        WARNINGS
                       Please study these warnings very carefully!
================================================================================

WARNING: Gradients needed for Numerical Frequencies
  ===> : Setting RunTyp to EnGrad

================================================================================
                                       INPUT FILE
================================================================================
NAME = methane-ir-raman.inp
|  1> ! B3LYP 6-31+G(d,p) NumFreq
|  2> %elprop Polar 1 end
|  3> 
|  4> * xyz 0 1
|  5> C    0.000000    0.000000    0.000000
|  6> H    0.629118    0.629118    0.629118
|  7> H   -0.629118   -0.629118    0.629118
|  8> H   -0.629118    0.629118   -0.629118
|  9> H    0.629118   -0.629118   -0.629118
| 10> *
| 11> 
| 12>                          ****END OF INPUT****
================================================================================

                     *******************************
                     * Energy+Gradient Calculation *
                     *******************************

---------------------------------
CARTESIAN COORDINATES (ANGSTROEM)
---------------------------------
  C      0.000000    0.000000    0.000000
  H      0.629118    0.629118    0.629118
  H     -0.629118   -0.629118    0.629118
  H     -0.629118    0.629118   -0.629118
  H      0.629118   -0.629118   -0.629118

----------------------------
CARTESIAN COORDINATES (A.U.)
----------------------------
  NO LB      ZA    FRAG     MASS         X           Y           Z
   0 C     6.0000    0    12.011    0.000000    0.000000    0.000000
   1 H     1.0000    0     1.008    1.188861    1.188861    1.188861
   2 H     1.0000    0     1.008   -1.188861   -1.188861    1.188861
   3 H     1.0000    0     1.008   -1.188861    1.188861   -1.188861
   4 H     1.0000    0     1.008    1.188861   -1.188861   -1.188861

--------------------------------
INTERNAL COORDINATES (ANGSTROEM)
--------------------------------
 C      0   0   0     0.000000000000     0.00000000     0.00000000
 H      1   0   0     1.089664339956     0.00000000     0.00000000
 H      1   2   0     1.089664339956   109.47122063     0.00000000
 H      1   2   3     1.089664339956   109.47122063   120.00000000
 H      1   2   3     1.089664339956   109.47122063   240.00000000

---------------------------
INTERNAL COORDINATES (A.U.)
---------------------------
 C      0   0   0     0.000000000000     0.00000000     0.00000000
 H      1   0   0     2.059167180417     0.00000000     0.00000000
 H      1   2   0     2.059167180417   109.47122063     0.00000000
 H      1   2   3     2.059167180417   109.47122063   120.00000000
 H      1   2   3     2.059167180417   109.47122063   240.00000000

---------------------
BASIS SET INFORMATION
---------------------
There are 2 groups of distinct atoms

 Group   1 Type C   : 11s5p1d contracted to 4s3p1d pattern {6311/311/1}
 Group   2 Type H   : 4s1p contracted to 2s1p pattern {31/1}

Atom   0C    basis set group =>   1
Atom   1H    basis set group =>   2
Atom   2H    basis set group =>   2
Atom   3H    basis set group =>   2
Atom   4H    basis set group =>   2
---------------------------------
AUXILIARY/J BASIS SET INFORMATION
---------------------------------
There are 2 groups of distinct atoms

 Group   1 Type C   : 12s5p4d2f1g contracted to 6s4p3d1f1g pattern {711111/2111/211/2/1}
 Group   2 Type H   : 5s2p1d contracted to 3s1p1d pattern {311/2/1}

Atom   0C    basis set group =>   1
Atom   1H    basis set group =>   2
Atom   2H    basis set group =>   2
Atom   3H    basis set group =>   2
Atom   4H    basis set group =>   2

Checking for AutoStart:
The File: methane-ir-raman.gbw exists
Trying to determine its content:
     ... Fine, the file contains calculation information
     ... Fine, the calculation information was read
     ... Fine, the file contains a basis set
     ... Fine, the basis set was read
     ... Fine, the file contains a geometry
     ... Fine, the geometry was read
     ... The file does not contain orbitals - skipping AutoStart
------------------------------------------------------------------------------
                             ORCA STARTUP CALCULATIONS
                           -- RI-GTO INTEGRALS CHOSEN --
------------------------------------------------------------------------------
------------------------------------------------------------------------------
                   ___                                                        
                  /   \      - P O W E R E D   B Y -                         
                 /     \                                                     
                 |  |  |   _    _      __       _____    __    __             
                 |  |  |  | |  | |    /  \     |  _  \  |  |  /  |          
                  \  \/   | |  | |   /    \    | | | |  |  | /  /          
                 / \  \   | |__| |  /  /\  \   | |_| |  |  |/  /          
                |  |  |   |  __  | /  /__\  \  |    /   |      \           
                |  |  |   | |  | | |   __   |  |    \   |  |\   \          
                \     /   | |  | | |  |  |  |  | |\  \  |  | \   \       
                 \___/    |_|  |_| |__|  |__|  |_| \__\ |__|  \__/        
                                                                              
                      - O R C A' S   B I G   F R I E N D -                    
                                      &                                       
                       - I N T E G R A L  F E E D E R -                       
                                                                              
 v1 FN, 2020, v2 2021, v3 2022-2024                                           
------------------------------------------------------------------------------


----------------------
SHARK INTEGRAL PACKAGE
----------------------

Number of atoms                             ...      5
Number of basis functions                   ...     38
Number of shells                            ...     20
Maximum angular momentum                    ...      2
Integral batch strategy                     ... SHARK/LIBINT Hybrid
RI-J (if used) integral strategy            ... SPLIT-RIJ (Revised 2003 algorithm where possible)
Printlevel                                  ...      1
Contraction scheme used                     ... SEGMENTED contraction
Prescreening option                         ... SCHWARTZ
   Thresh                                   ... 2.500e-11
   Tcut                                     ... 2.500e-12
   Tpresel                                  ... 2.500e-12 
Coulomb Range Separation                    ... NOT USED
Exchange Range Separation                   ... NOT USED
Multipole approximations                    ... NOT USED
Finite Nucleus Model                        ... NOT USED
CABS basis                                  ... NOT available
Auxiliary Coulomb fitting basis             ... AVAILABLE
   # of basis functions in Aux-J            ...     93
   # of shells in Aux-J                     ...     35
   Maximum angular momentum in Aux-J        ...      4
Auxiliary J/K fitting basis                 ... NOT available
Auxiliary Correlation fitting basis         ... NOT available
Auxiliary 'external' fitting basis          ... NOT available

Checking pre-screening integrals            ... done (  0.0 sec) Dimension = 20
   => SHARK Basis and OBASIS are compatible. Storing Pre-screening
Shell pair information
Shell pair cut-off parameter TPreSel        ...   2.5e-12
Total number of shell pairs                 ...       210
Shell pairs after pre-screening             ...       210
Total number of primitive shell pairs       ...       736
Primitive shell pairs kept                  ...       702
          la=0 lb=0:     78 shell pairs
          la=1 lb=0:     84 shell pairs
          la=1 lb=1:     28 shell pairs
          la=2 lb=0:     12 shell pairs
          la=2 lb=1:      7 shell pairs
          la=2 lb=2:      1 shell pairs

Checking whether 4 symmetric matrices of dimension 38 fit in memory
:Max Core in MB      =   4096.00
 MB in use           =      3.43
 MB left             =   4092.57
 MB needed           =      0.02
 Data fit in memory  = YES
Calculating RI/J V-Matrix + Cholesky decomp.... done (  0.0 sec)
Calculating Nuclear repulsion               ... done (  0.0 sec) ENN=     13.439527823364 Eh

Diagonalization of the overlap matrix:
Smallest eigenvalue                        ... 1.287e-02
Time for diagonalization                   ...    0.000 sec
Threshold for overlap eigenvalues          ... 1.000e-07
Number of eigenvalues below threshold      ... 0
Time for construction of square roots      ...    0.000 sec
Total time needed                          ...    0.001 sec

-------------------
DFT GRID GENERATION
-------------------

General Integration Accuracy     IntAcc      ... 4.388
Radial Grid Type                 RadialGrid  ... OptM3 with GC (2021)
Angular Grid (max. ang.)         AngularGrid ... 4 (Lebedev-302)
Angular grid pruning method      GridPruning ... 4 (adaptive)
Weight generation scheme         WeightScheme... mBecke (2022)
Basis function cutoff            BFCut       ... 1.0000e-11
Integration weight cutoff        WCut        ... 1.0000e-14
Partially contracted basis set               ... off
Rotationally invariant grid construction     ... off
Angular grids for H and He will be reduced by one unit
Diffuse basis detected: some atoms will have their outermost
                        angular grid increased by 1.

Total number of grid points                  ...    19568
Total number of batches                      ...      308
Average number of points per batch           ...       63
Average number of grid points per atom       ...     3914

--------------------
COSX GRID GENERATION
--------------------

GRIDX 1
-------
General Integration Accuracy     IntAcc      ... 3.816
Radial Grid Type                 RadialGrid  ... OptM3 with GC (2021)
Angular Grid (max. ang.)         AngularGrid ... 1 (Lebedev-50)
Angular grid pruning method      GridPruning ... 4 (adaptive)
Weight generation scheme         WeightScheme... mBecke (2022)
Basis function cutoff            BFCut       ... 1.0000e-11
Integration weight cutoff        WCut        ... 1.0000e-14
Partially contracted basis set               ... on
Rotationally invariant grid construction     ... off
Angular grids for H and He will be reduced by one unit
Diffuse basis detected: some atoms will have their outermost
                        angular grid increased by 1.

Total number of grid points                  ...     2520
Total number of batches                      ...       23
Average number of points per batch           ...      109
Average number of grid points per atom       ...      504
UseSFitting                                  ... on

GRIDX 2
-------
General Integration Accuracy     IntAcc      ... 4.020
Radial Grid Type                 RadialGrid  ... OptM3 with GC (2021)
Angular Grid (max. ang.)         AngularGrid ... 2 (Lebedev-110)
Angular grid pruning method      GridPruning ... 4 (adaptive)
Weight generation scheme         WeightScheme... mBecke (2022)
Basis function cutoff            BFCut       ... 1.0000e-11
Integration weight cutoff        WCut        ... 1.0000e-14
Partially contracted basis set               ... on
Rotationally invariant grid construction     ... off
Angular grids for H and He will be reduced by one unit
Diffuse basis detected: some atoms will have their outermost
                        angular grid increased by 1.

Total number of grid points                  ...     5428
Total number of batches                      ...       45
Average number of points per batch           ...      120
Average number of grid points per atom       ...     1086
UseSFitting                                  ... on

GRIDX 3
-------
General Integration Accuracy     IntAcc      ... 4.338
Radial Grid Type                 RadialGrid  ... OptM3 with GC (2021)
Angular Grid (max. ang.)         AngularGrid ... 3 (Lebedev-194)
Angular grid pruning method      GridPruning ... 4 (adaptive)
Weight generation scheme         WeightScheme... mBecke (2022)
Basis function cutoff            BFCut       ... 1.0000e-11
Integration weight cutoff        WCut        ... 1.0000e-14
Partially contracted basis set               ... on
Rotationally invariant grid construction     ... off
Angular grids for H and He will be reduced by one unit
Diffuse basis detected: some atoms will have their outermost
                        angular grid increased by 1.

Total number of grid points                  ...    11888
Total number of batches                      ...       96
Average number of points per batch           ...      123
Average number of grid points per atom       ...     2378
UseSFitting                                  ... on
Grids setup in   0.1 sec
Initializing property integral containers    ... done (  0.0 sec)

SHARK setup successfully completed in   0.2 seconds

Maximum memory used throughout the entire STARTUP-calculation: 9.7 MB
-------------------------------------------------------------------------------
                                 ORCA GUESS
                   Start orbitals & Density for SCF / CASSCF
-------------------------------------------------------------------------------

------------
SCF SETTINGS
------------
Hamiltonian:
 Density Functional     Method          .... DFT(GTOs)
 Exchange Functional    Exchange        .... B88
   X-Alpha parameter    XAlpha          ....  0.666667
   Becke's b parameter  XBeta           ....  0.004200
 Correlation Functional Correlation     .... LYP
 LDA part of GGA corr.  LDAOpt          .... VWN-5
 Gradients option       PostSCFGGA      .... off
 Hybrid DFT is turned on
   Fraction HF Exchange ScalHFX         ....  0.200000
   Scaling of DF-GGA-X  ScalDFX         ....  0.720000
   Scaling of DF-GGA-C  ScalDFC         ....  0.810000
   Scaling of DF-LDA-C  ScalLDAC        ....  1.000000
   Perturbative correction              ....  0.000000
   NL short-range parameter             ....  4.800000
 RI-approximation to the Coulomb term is turned on
   Number of AuxJ basis functions       .... 93
   RIJ-COSX (HFX calculated with COS-X)).... on


General Settings:
 Integral files         IntName         .... methane-ir-raman
 Hartree-Fock type      HFTyp           .... RHF
 Total Charge           Charge          ....    0
 Multiplicity           Mult            ....    1
 Number of Electrons    NEL             ....   10
 Basis Dimension        Dim             ....   38
 Nuclear Repulsion      ENuc            ....     13.4395278234 Eh

Convergence Acceleration:
 AO-DIIS                CNVDIIS         .... on
   Start iteration      DIISMaxIt       ....    12
   Startup error        DIISStart       ....  0.200000
   # of expansion vecs  DIISMaxEq       ....     5
   Bias factor          DIISBfac        ....   1.050
   Max. coefficient     DIISMaxC        ....  10.000
 MO-DIIS                CNVKDIIS        .... off
 Trust-Rad. Augm. Hess. CNVTRAH         .... auto
   Auto Start mean grad. ratio tolernc. ....  1.125000
   Auto Start start iteration           ....    50
   Auto Start num. interpolation iter.  ....    10
   Max. Number of Micro iterations      ....    24
   Max. Number of Macro iterations      .... Maxiter - #DIIS iter
   Number of Davidson start vectors     ....     2
   Converg. threshold    (grad. norm)   ....   1.000e-05
   Grad. Scal. Fac. for Micro threshold ....   0.100
   Minimum threshold for Micro iter.    ....   1.000e-02
   NR start threshold (gradient norm)   ....   1.000e-04
   Initial trust radius                 ....   0.400
   Minimum AH scaling param. (alpha)    ....   1.000
   Maximum AH scaling param. (alpha)    .... 1000.000
   Quad. conv. algorithm                .... NR
   White noise on init. David. guess    .... on
   Maximum white noise                  ....   0.010
   Pseudo random numbers                .... off
   Inactive MOs                         .... canonical
   Orbital update algorithm             .... Taylor
   Preconditioner                       .... Diag
   Full preconditioner red. dimension   ....   250
 SOSCF                 CNVSOSCF           .... on
   Start iteration     SOSCFMaxIt         ....   150
   Startup grad/error  SOSCFStart         ....  0.003300
   Hessian update      SOSCFHessUp        .... L-BFGS
   Autom. constraints  SOSCFAutoConstrain .... off
 Level Shifting         CNVShift        .... on
   Level shift para.    LevelShift      ....    0.2500
   Turn off err/grad.   ShiftErr        ....    0.0010
 Zerner damping         CNVZerner       .... off
 Static damping         CNVDamp         .... on
   Fraction old density DampFac         ....    0.7000
   Max. Damping (<1)    DampMax         ....    0.9800
   Min. Damping (>=0)   DampMin         ....    0.0000
   Turn off err/grad.   DampErr         ....    0.1000

SCF Procedure:
 Maximum # iterations   MaxIter         ....   125
 SCF integral mode      SCFMode         .... Direct
   Integral package                     .... SHARK and LIBINT hybrid scheme
 Reset frequency        DirectResetFreq ....    20
 Integral Threshold     Thresh          ....  2.500e-11 Eh
 Primitive CutOff       TCut            ....  2.500e-12 Eh

Convergence Tolerance:
 Convergence Check Mode ConvCheckMode   .... Total+1el-Energy
 Convergence forced     ConvForced      .... 0
 Energy Change          TolE            ....  1.000e-08 Eh
 1-El. energy change                    ....  1.000e-05 Eh
 Orbital Gradient       TolG            ....  1.000e-05
 Orbital Rotation angle TolX            ....  1.000e-05
 DIIS Error             TolErr          ....  5.000e-07

------------------------------
INITIAL GUESS: MODEL POTENTIAL
------------------------------
Loading Hartree-Fock densities                     ... done
Calculating cut-offs                               ... done
Initializing the effective Hamiltonian             ... done
Setting up the integral package (SHARK)            ... done
Starting the Coulomb interaction                   ... done (   0.0 sec)
Making the grid                                    ... done (   0.0 sec)
Mapping shells                                     ... done
Starting the XC term evaluation                    ... done (   0.0 sec)
  promolecular density results
     # of electrons  =     10.002353904
     EX              =     -6.308261687
     EC              =     -0.288559688
     EX+EC           =     -6.596821375
Transforming the Hamiltonian                       ... done (   0.0 sec)
Diagonalizing the Hamiltonian                      ... done (   0.0 sec)
Back transforming the eigenvectors                 ... done (   0.0 sec)
Now organizing SCF variables                       ... done
                      ------------------
                      INITIAL GUESS DONE (   0.0 sec)
                      ------------------
             **** ENERGY FILE WAS UPDATED (methane-ir-raman.en.tmp) ****
Finished Guess after   0.1 sec
Maximum memory used throughout the entire GUESS-calculation: 5.7 MB

-------------------------------------------------------------------------------------------
                                      ORCA LEAN-SCF
                              memory conserving SCF solver
-------------------------------------------------------------------------------------------

----------------------------------------D-I-I-S--------------------------------------------
Iteration    Energy (Eh)           Delta-E    RMSDP     MaxDP     DIISErr   Damp  Time(sec)
-------------------------------------------------------------------------------------------
               ***  Starting incremental Fock matrix formation  ***
    1    -40.4097546484875778     0.00e+00  5.94e-03  6.73e-02  2.06e-01  0.700   0.1
    2    -40.4473552677102077    -3.76e-02  4.25e-03  4.52e-02  1.06e-01  0.700   0.1
                               ***Turning on AO-DIIS***
    3    -40.4625261291632796    -1.52e-02  1.60e-03  1.46e-02  3.88e-02  0.700   0.1
    4    -40.4710026346187703    -8.48e-03  2.33e-03  2.01e-02  1.79e-02  0.000   0.1
    5    -40.4892305339077154    -1.82e-02  5.03e-04  3.78e-03  8.79e-03  0.000   0.1
                              *** Initializing SOSCF ***
---------------------------------------S-O-S-C-F--------------------------------------
Iteration    Energy (Eh)           Delta-E    RMSDP     MaxDP     MaxGrad    Time(sec)
--------------------------------------------------------------------------------------
    6    -40.4893954418431292    -1.65e-04  1.68e-04  1.10e-03  2.49e-03     0.1
               *** Restarting incremental Fock matrix formation ***
    7    -40.4894579026477430    -6.25e-05  1.17e-04  9.33e-04  2.88e-04     0.1
    8    -40.4894580598518417    -1.57e-07  5.10e-05  5.77e-04  3.78e-04     0.2
    9    -40.4894593843691695    -1.32e-06  2.49e-06  1.55e-05  1.07e-05     0.1
   10    -40.4894593854966018    -1.13e-09  2.66e-07  1.58e-06  1.18e-06     0.1
                 **** Energy Check signals convergence ****

               *****************************************************
               *                     SUCCESS                       *
               *           SCF CONVERGED AFTER  10 CYCLES          *
               *****************************************************

Recomputing exchange energy using gridx3       ... done (    0.151 sec)
Old exchange energy                            :     -1.315977915 Eh
New exchange energy                            :     -1.316007597 Eh
Exchange energy change after final integration :     -0.000029683 Eh
Total energy after final integration           :    -40.489489068 Eh
             **** ENERGY FILE WAS UPDATED (methane-ir-raman.en.tmp) ****

----------------
TOTAL SCF ENERGY
----------------

Total Energy       :        -40.48948906801034 Eh           -1101.77501 eV

Components:
Nuclear Repulsion  :         13.43952782336440 Eh             365.70814 eV
Electronic Energy  :        -53.92898720882145 Eh           -1467.48235 eV
One Electron Energy:        -79.81083707444080 Eh           -2171.76329 eV
Two Electron Energy:         25.88184986561935 Eh             704.28094 eV

Virial components:
Potential Energy   :        -80.67480699488127 Eh           -2195.27310 eV
Kinetic Energy     :         40.18531792687093 Eh            1093.49809 eV
Virial Ratio       :          2.00756921076730

DFT components:
N(Alpha)           :        5.000030040344 electrons
N(Beta)            :        5.000030040344 electrons
N(Total)           :       10.000060080688 electrons
E(X)               :       -5.204247041850 Eh       
E(C)               :       -0.351146258973 Eh       
E(XC)              :       -5.555393300823 Eh       

---------------
SCF CONVERGENCE
---------------

  Last Energy change         ...    1.1274e-09  Tolerance :   1.0000e-08
  Last MAX-Density change    ...    1.5794e-06  Tolerance :   1.0000e-07
  Last RMS-Density change    ...    2.6557e-07  Tolerance :   5.0000e-09
  Last DIIS Error            ...    2.4865e-03  Tolerance :   5.0000e-07
  Last Orbital Gradient      ...    1.1806e-06  Tolerance :   1.0000e-05
  Last Orbital Rotation      ...    1.3391e-06  Tolerance :   1.0000e-05


----------------
ORBITAL ENERGIES
----------------

  NO   OCC          E(Eh)            E(eV) 
   0   2.0000     -10.163292      -276.5572 
   1   2.0000      -0.693298       -18.8656 
   2   2.0000      -0.390928       -10.6377 
   3   2.0000      -0.390928       -10.6377 
   4   2.0000      -0.390928       -10.6377 
   5   0.0000       0.019069         0.5189 
   6   0.0000       0.063700         1.7334 
   7   0.0000       0.063700         1.7334 
   8   0.0000       0.063700         1.7334 
   9   0.0000       0.185063         5.0358 
  10   0.0000       0.185063         5.0358 
  11   0.0000       0.185063         5.0358 
  12   0.0000       0.281460         7.6589 
  13   0.0000       0.640973        17.4418 
  14   0.0000       0.640973        17.4418 
  15   0.0000       0.640973        17.4418 
*Only the first 10 virtual orbitals were printed.

                    ********************************
                    * MULLIKEN POPULATION ANALYSIS *
                    ********************************

-----------------------
MULLIKEN ATOMIC CHARGES
-----------------------
   0 C :   -0.599915
   1 H :    0.149979
   2 H :    0.149979
   3 H :    0.149979
   4 H :    0.149979
Sum of atomic charges:    0.0000000

--------------------------------
MULLIKEN REDUCED ORBITAL CHARGES
--------------------------------
  0 C s       :     3.315379  s :     3.315379
      pz      :     1.086517  p :     3.259550
      px      :     1.086517
      py      :     1.086517
      dz2     :    -0.000000  d :     0.024987
      dxz     :     0.008329
      dyz     :     0.008329
      dx2y2   :    -0.000000
      dxy     :     0.008329

  1 H s       :     0.838651  s :     0.838651
      pz      :     0.003790  p :     0.011371
      px      :     0.003790
      py      :     0.003790

  2 H s       :     0.838650  s :     0.838650
      pz      :     0.003790  p :     0.011371
      px      :     0.003790
      py      :     0.003790

  3 H s       :     0.838650  s :     0.838650
      pz      :     0.003790  p :     0.011371
      px      :     0.003790
      py      :     0.003790

  4 H s       :     0.838650  s :     0.838650
      pz      :     0.003790  p :     0.011371
      px      :     0.003790
      py      :     0.003790



                     *******************************
                     * LOEWDIN POPULATION ANALYSIS *
                     *******************************

----------------------
LOEWDIN ATOMIC CHARGES
----------------------
   0 C :   -0.471585
   1 H :    0.117896
   2 H :    0.117896
   3 H :    0.117896
   4 H :    0.117896

-------------------------------
LOEWDIN REDUCED ORBITAL CHARGES
-------------------------------
  0 C s       :     2.990864  s :     2.990864
      pz      :     1.145134  p :     3.435403
      px      :     1.145134
      py      :     1.145134
      dz2     :     0.000000  d :     0.045318
      dxz     :     0.015106
      dyz     :     0.015106
      dx2y2   :     0.000000
      dxy     :     0.015106

  1 H s       :     0.842582  s :     0.842582
      pz      :     0.013174  p :     0.039522
      px      :     0.013174
      py      :     0.013174

  2 H s       :     0.842582  s :     0.842582
      pz      :     0.013174  p :     0.039522
      px      :     0.013174
      py      :     0.013174

  3 H s       :     0.842582  s :     0.842582
      pz      :     0.013174  p :     0.039522
      px      :     0.013174
      py      :     0.013174

  4 H s       :     0.842582  s :     0.842582
      pz      :     0.013174  p :     0.039522
      px      :     0.013174
      py      :     0.013174



                      *****************************
                      * MAYER POPULATION ANALYSIS *
                      *****************************

  NA   - Mulliken gross atomic population
  ZA   - Total nuclear charge
  QA   - Mulliken gross atomic charge
  VA   - Mayer's total valence
  BVA  - Mayer's bonded valence
  FA   - Mayer's free valence

  ATOM       NA         ZA         QA         VA         BVA        FA
  0 C      6.5999     6.0000    -0.5999     3.8747     3.8747     0.0000
  1 H      0.8500     1.0000     0.1500     0.9494     0.9494    -0.0000
  2 H      0.8500     1.0000     0.1500     0.9494     0.9494    -0.0000
  3 H      0.8500     1.0000     0.1500     0.9494     0.9494     0.0000
  4 H      0.8500     1.0000     0.1500     0.9494     0.9494     0.0000

  Mayer bond orders larger than 0.100000
B(  0-C ,  1-H ) :   0.9687 B(  0-C ,  2-H ) :   0.9687 B(  0-C ,  3-H ) :   0.9687 
B(  0-C ,  4-H ) :   0.9687 

-------
TIMINGS
-------

Total SCF time: 0 days 0 hours 0 min 1 sec 

Total time                  ....       1.300 sec
Sum of individual times     ....       1.169 sec  ( 90.0%)

SCF preparation             ....       0.047 sec  (  3.7%)
Fock matrix formation       ....       1.110 sec  ( 85.4%)
  Startup                   ....       0.000 sec  (  0.0% of F)
  Split-RI-J                ....       0.042 sec  (  3.8% of F)
  Chain of spheres X        ....       0.712 sec  ( 64.1% of F)
  XC integration            ....       0.449 sec  ( 40.5% of F)
    XC Preparation          ....       0.000 sec  (  0.0% of XC)
    Basis function eval.    ....       0.188 sec  ( 42.0% of XC)
    Density eval.           ....       0.074 sec  ( 16.5% of XC)
    XC-Functional eval.     ....       0.079 sec  ( 17.5% of XC)
    XC-Potential eval.      ....       0.067 sec  ( 14.9% of XC)
Diagonalization             ....       0.000 sec  (  0.0%)
Density matrix formation    ....       0.002 sec  (  0.1%)
Total Energy calculation    ....       0.001 sec  (  0.0%)
Population analysis         ....       0.001 sec  (  0.1%)
Orbital Transformation      ....       0.002 sec  (  0.1%)
Orbital Orthonormalization  ....       0.000 sec  (  0.0%)
DIIS solution               ....       0.005 sec  (  0.3%)
SOSCF solution              ....       0.002 sec  (  0.2%)
Finished LeanSCF after   1.3 sec

Maximum memory used throughout the entire LEANSCF-calculation: 5.8 MB

-------------------------   --------------------
FINAL SINGLE POINT ENERGY       -40.489489068010
-------------------------   --------------------

------------------------------------------------------------------------------
                         ORCA SCF GRADIENT CALCULATION
------------------------------------------------------------------------------

Nuc. rep. gradient        (SHARK) ... done (  0.0 sec)
HCore & Overlap gradient  (SHARK) ... done (  0.0 sec)
Split-RIJ-J gradient      (SHARK) ... done (  0.1 sec)
done (  0.5 sec)
XC gradient                       ... done (  0.1 sec)

------------------
CARTESIAN GRADIENT
------------------

   1   C   :    0.000000035    0.000000056   -0.000000003
   2   H   :   -0.001366640   -0.001366619   -0.001366646
   3   H   :    0.001366587    0.001366546   -0.001366563
   4   H   :    0.001366660   -0.001366616    0.001366632
   5   H   :   -0.001366643    0.001366633    0.001366580

Difference to translation invariance:
           :   -0.0000000000    0.0000000000   -0.0000000000

Difference to rotation invariance:
           :    0.0000000703    0.0000000783    0.0000000098

Norm of the Cartesian gradient     ...    0.0047340893
RMS gradient                       ...    0.0012223366
MAX gradient                       ...    0.0013666598

-------
TIMINGS
-------

Total SCF gradient time     ....        0.731 sec

Densities                   ....       0.000 sec  (  0.0%)
One electron gradient       ....       0.006 sec  (  0.9%)
RI-J Coulomb gradient       ....       0.062 sec  (  8.5%)
COSX gradient               ....       0.529 sec  ( 72.4%)
XC gradient                 ....       0.133 sec  ( 18.2%)

Maximum memory used throughout the entire SCFGRAD-calculation: 7.3 MB
------------------------------------------------------------------------------
                            ORCA SCF RESPONSE CALCULATION
------------------------------------------------------------------------------

GBWName                                 ... methane-ir-raman.gbw
Number of atoms                         ...      5
Number of basis functions               ...     38
Max core memory                         ...   4096 MB

Electric field perturbation             ... YES
Quadrupolar field perturbation          ...  NO
Magnetic field perturbation (no GIAO)   ...  NO
Magnetic field perturbation (with GIAO) ...  NO
Linear momentum (velocity) perturbation ...  NO
Spin-orbit coupling perturbation        ...  NO
Choice of electric origin               ... Center of mass
Position of electric origin             ...     0.000000     0.000000     0.000000
Choice of magnetic origin               ... GIAO
Position of magnetic origin             ...     0.000000     0.000000     0.000000
Nuclear geometric perturbations         ...  NO (  15 perturbations)
Nucleus-orbit perturbations             ...  NO (   0 perturbations)
Spin-dipole/Fermi contact perturbations ...  NO (   0 perturbations)

Total number of real perturbations      ...      3
Total number of imaginary perturbations ...      0
Total number of triplet perturbations   ...      0
Total number of SOC perturbations       ...      0


                                **********************
                                * REAL PERTURBATIONS *
                                **********************



-------------------
SHARK CP-SCF DRIVER
-------------------

Dimension of the orbital basis          ...     38
Dimension of the CPSCF-problem          ...    165
Number of operators                     ...      1
Max. number of iterations               ...    128
Convergence Tolerance                   ... 1.0e-04
Number of perturbations                 ...      3
Perturbation type                       ... REAL

----------------------------
POPLE LINEAR EQUATION SOLVER
----------------------------

  ITERATION   0:   ||err||_max =   1.0302e+00 (   0.0 sec   0/  3 done)
  ITERATION   1:   ||err||_max =   4.4967e-02 (   0.0 sec   0/  3 done)
  ITERATION   2:   ||err||_max =   3.7501e-03 (   0.0 sec   0/  3 done)
  ITERATION   3:   ||err||_max =   2.5383e-04 (   0.0 sec   0/  3 done)
  ITERATION   4:   ||err||_max =   5.6015e-06 (   0.0 sec   3/  3 done)

CP-SCF equations solved in   0.2 sec
Response densities calculated in   0.0 sec

Maximum memory used throughout the entire SCFRESP-calculation: 5.2 MB

------------------------------------------------------------------------------
                              ORCA PROPERTY CALCULATIONS
------------------------------------------------------------------------------

GBWName                                 ... methane-ir-raman.gbw
Number of atoms                         ...      5
Number of basis functions               ...     38
Max core memory                         ...   4096 MB

Electric properties:
Dipole moment                           ... YES
Quadrupole moment                       ...  NO
Static polarizability (Dipole/Dipole)   ... YES
Static polarizability (Dipole/Quad.)    ...  NO
Static polarizability (Quad./Quad.)     ...  NO
Static polarizability (Velocity)        ...  NO
Static hyperpolarizability              ...  NO

Atomic electric properties:
Dipole moment                           ...  NO
Quadrupole moment                       ...  NO
Static polarizability                   ...  NO

Choice of electric origin               ... Center of mass
Position of electric origin             ...     0.000000     0.000000     0.000000

General magnetic properties:
Magnetizability                         ...  NO

EPR properties:
g-Tensor (aka g-matrix)                 ...  NO
Zero-Field splitting spin-orbit         ...  NO
Zero-field splitting spin-spin          ...  NO
Hyperfine couplings                     ...  NO (   0 nuclei)
Quadrupole couplings                    ...  NO (   0 nuclei)
Contact density                         ...  NO (   0 nuclei)

NMR properties:
Chemical shifts                         ...  NO (   0 nuclei)
Spin-rotation constants                 ...  NO (   0 nuclei)
Spin-spin couplings                     ...  NO (   0 nuclei,    0 pairs)

Choice of magnetic origin               ... GIAO
Position of magnetic origin             ...     0.000000     0.000000     0.000000

Properties with geometric perturbations:
SCF Hessian                             ...  NO
IR spectrum                             ...  NO
VCD spectrum                            ...  NO
X-ray spectroscopy properties:
SCF XES/XAS/RIXS spectra                ...  NO

SCF SOC stabilization energy            ...  NO
Diagonal Born-Oppenheimer correction    ...  NO

-------------
DIPOLE MOMENT
-------------

Method             : SCF
Type of density    : Electron Density
Multiplicity       :   1
Irrep              :   0
Energy             :   -40.4894890680103430 Eh
Basis              : AO
                                X                 Y                 Z
Electronic contribution:     -0.000000013      -0.000000016      -0.000000016
Nuclear contribution   :      0.000000000       0.000000000       0.000000000
                        -----------------------------------------
Total Dipole Moment    :     -0.000000013      -0.000000016      -0.000000016
                        -----------------------------------------
Magnitude (a.u.)       :      0.000000026
Magnitude (Debye)      :      0.000000066



--------------------
Rotational spectrum 
--------------------
 
Rotational constants in cm-1:             5.281798             5.281798             5.281798 
Rotational constants in MHz :        158344.318297        158344.318297        158344.318297 

Dipole components along the rotational axes: 
x,y,z [a.u.] :    -0.000000     0.000000    -0.000000 
x,y,z [Debye]:    -0.000000     0.000000    -0.000000 

 

Dipole moment calculation done in   0.0 sec 


---------------------------------------------------
STATIC POLARIZABILITY TENSOR (Dipole/Dipole)
---------------------------------------------------

Method             : SCF
Type of density    : Electron Density
Type of derivative : Electric Field (Direction=X)
Multiplicity       :   1
Irrep              :   0
Basis              : AO

The raw cartesian tensor (atomic units):
      13.646068710         0.000000160         0.000000342  
       0.000000160        13.646068150        -0.000000500  
       0.000000342        -0.000000500        13.646067952  
diagonalized tensor: 
      13.646067436        13.646068533        13.646068844  

Orientation: 
      -0.277381974         0.284053918        -0.917808592  
       0.591902338         0.802996052         0.069634492  
       0.756776627        -0.523937699        -0.390868808  

Isotropic polarizability :  13.64607


Polarizability tensor calculation done in   0.0 sec 

Maximum memory used throughout the entire PROP-calculation: 3.6 MB

----------------------------------------------------------------------------
                           ORCA NUMERICAL FREQUENCIES
----------------------------------------------------------------------------

Number of atoms                ... 5
Central differences            ... used
Translation invariance         ... used
Number of displacements        ... 30 - 6
Numerical increment            ... 5.000e-03 bohr
IR-spectrum generation         ... on
Raman-spectrum generation      ... on
Polarizability calculation     ... 1
Surface Crossing Hessian       ... off

The output will be reduced. Please look at the following files:
SCF program output             ... >methane-ir-raman.lastscf
Integral program output        ... >methane-ir-raman.lastint
Gradient program output        ... >methane-ir-raman.lastgrad
Dipole moment program output   ... >methane-ir-raman.lastmom

	<< Calculating gradient on displaced geometry   1 (of  24) >>
	<< Calculating gradient on displaced geometry   2 (of  24) >>
	<< Calculating gradient on displaced geometry   3 (of  24) >>
	<< Calculating gradient on displaced geometry   4 (of  24) >>
	<< Calculating gradient on displaced geometry   5 (of  24) >>
	<< Calculating gradient on displaced geometry   6 (of  24) >>
	<< Calculating gradient on displaced geometry   7 (of  24) >>
	<< Calculating gradient on displaced geometry   8 (of  24) >>
	<< Calculating gradient on displaced geometry   9 (of  24) >>
	<< Calculating gradient on displaced geometry  10 (of  24) >>
	<< Calculating gradient on displaced geometry  11 (of  24) >>
	<< Calculating gradient on displaced geometry  12 (of  24) >>
	<< Calculating gradient on displaced geometry  13 (of  24) >>
	<< Calculating gradient on displaced geometry  14 (of  24) >>
	<< Calculating gradient on displaced geometry  15 (of  24) >>
	<< Calculating gradient on displaced geometry  16 (of  24) >>
	<< Calculating gradient on displaced geometry  17 (of  24) >>
	<< Calculating gradient on displaced geometry  18 (of  24) >>
	<< Calculating gradient on displaced geometry  19 (of  24) >>
	<< Calculating gradient on displaced geometry  20 (of  24) >>
	<< Calculating gradient on displaced geometry  21 (of  24) >>
	<< Calculating gradient on displaced geometry  22 (of  24) >>
	<< Calculating gradient on displaced geometry  23 (of  24) >>
	<< Calculating gradient on displaced geometry  24 (of  24) >>

-----------------------
VIBRATIONAL FREQUENCIES
-----------------------

Scaling factor for frequencies =  1.000000000  (already applied!)

     0:       0.00 cm**-1
     1:       0.00 cm**-1
     2:       0.00 cm**-1
     3:       0.00 cm**-1
     4:       0.00 cm**-1
     5:       0.00 cm**-1
     6:    1337.80 cm**-1
     7:    1337.88 cm**-1
     8:    1338.86 cm**-1
     9:    1559.94 cm**-1
    10:    1560.06 cm**-1
    11:    3066.55 cm**-1
    12:    3180.18 cm**-1
    13:    3180.85 cm**-1
    14:    3180.91 cm**-1


------------
NORMAL MODES
------------

These modes are the Cartesian displacements weighted by the diagonal matrix
M(i,i)=1/sqrt(m[i]) where m[i] is the mass of the displaced atom
Thus, these vectors are normalized but *not* orthogonal

                  0          1          2          3          4          5    
      0       0.000000   0.000000   0.000000   0.000000   0.000000   0.000000
      1       0.000000   0.000000   0.000000   0.000000   0.000000   0.000000
      2       0.000000   0.000000   0.000000   0.000000   0.000000   0.000000
      3       0.000000   0.000000   0.000000   0.000000   0.000000   0.000000
      4       0.000000   0.000000   0.000000   0.000000   0.000000   0.000000
      5       0.000000   0.000000   0.000000   0.000000   0.000000   0.000000
      6       0.000000   0.000000   0.000000   0.000000   0.000000   0.000000
      7       0.000000   0.000000   0.000000   0.000000   0.000000   0.000000
      8       0.000000   0.000000   0.000000   0.000000   0.000000   0.000000
      9       0.000000   0.000000   0.000000   0.000000   0.000000   0.000000
     10       0.000000   0.000000   0.000000   0.000000   0.000000   0.000000
     11       0.000000   0.000000   0.000000   0.000000   0.000000   0.000000
     12       0.000000   0.000000   0.000000   0.000000   0.000000   0.000000
     13       0.000000   0.000000   0.000000   0.000000   0.000000   0.000000
     14       0.000000   0.000000   0.000000   0.000000   0.000000   0.000000
                  6          7          8          9         10         11    
      0       0.016442  -0.103457   0.067746   0.000012  -0.000120  -0.000074
      1       0.096404  -0.032080  -0.072389  -0.000153  -0.000093   0.000101
      2      -0.077451  -0.061892  -0.075723   0.000127  -0.000060   0.000100
      3      -0.013843   0.133795  -0.477645   0.017415  -0.407857   0.288160
      4      -0.400050  -0.212652   0.200648   0.345284   0.218910   0.288294
      5       0.440298  -0.068527   0.216894  -0.362643   0.188494   0.288312
      6       0.275055   0.363076  -0.195645  -0.018135   0.408180  -0.288418
      7      -0.113065   0.018345   0.483009  -0.344323  -0.218930  -0.288343
      8       0.019886   0.436416   0.234190  -0.362044   0.189457   0.288457
      9      -0.372658   0.252015  -0.208071  -0.016870   0.408307  -0.288457
     10      -0.172748   0.403353   0.230370   0.344617   0.219745   0.288478
     11       0.082388   0.051834   0.486628   0.361932  -0.188709  -0.288353
     12      -0.084466   0.483872   0.074128   0.017443  -0.407202   0.289592
     13      -0.462853   0.173212  -0.051467  -0.343752  -0.218621  -0.289630
     14       0.380313   0.317762  -0.035422   0.361239  -0.188529  -0.289601
                 12         13         14    
      0       0.051100   0.026557  -0.072084
      1      -0.055206   0.072898  -0.012279
      2      -0.053416  -0.049933  -0.056264
      3       0.193978  -0.152157   0.432800
      4       0.172409  -0.142859   0.444982
      5       0.172789  -0.167625   0.436135
      6      -0.147142  -0.469915   0.074798
      7      -0.168654  -0.460436   0.086852
      8       0.146660   0.465206  -0.100679
      9      -0.158497   0.311659   0.354675
     10       0.157635  -0.291603  -0.371709
     11      -0.179695   0.296141   0.357759
     12      -0.497227  -0.006027  -0.003346
     13       0.496421   0.026264  -0.013816
     14       0.496736   0.001267  -0.022786


-----------
IR SPECTRUM
-----------

 Mode   freq       eps      Int      T**2         TX        TY        TZ
       cm**-1   L/(mol*cm) km/mol    a.u.
----------------------------------------------------------------------------
  6:   1337.80   0.003751   18.96  0.000875  (-0.003893 -0.022864  0.018360)
  7:   1337.88   0.003751   18.96  0.000875  ( 0.024547  0.007590  0.014658)
  8:   1338.86   0.003918   19.80  0.000913  (-0.016433  0.017533  0.018324)
  9:   1559.94   0.000001    0.01  0.000000  (-0.000020  0.000363 -0.000378)
 10:   1560.06   0.000001    0.01  0.000000  ( 0.000418  0.000230  0.000193)
 11:   3066.55   0.000001    0.01  0.000000  (-0.000215  0.000221  0.000223)
 12:   3180.18   0.004917   24.85  0.000483  ( 0.012179 -0.013132 -0.012718)
 13:   3180.85   0.004673   23.62  0.000458  ( 0.006170  0.016910 -0.011595)
 14:   3180.91   0.004673   23.62  0.000458  (-0.016736 -0.002843 -0.013050)

* The epsilon (eps) is given for a Dirac delta lineshape.
** The dipole moment derivative (T) already includes vibrational overlap.

--------------
RAMAN SPECTRUM  
--------------

 Mode    freq (cm**-1)   Activity   Depolarization
-------------------------------------------------------------------
   6:      1337.80      0.903257      0.750000
   7:      1337.88      0.902987      0.750000
   8:      1338.86      0.927872      0.749997
   9:      1559.94     14.891702      0.750000
  10:      1560.06     14.891254      0.750000
  11:      3066.55    148.043835      0.000002
  12:      3180.18     62.037647      0.749988
  13:      3180.85     61.768684      0.750000
  14:      3180.91     61.765931      0.750000

The first frequency considered to be a vibration is 6
The total number of vibrations considered is 9


--------------------------
THERMOCHEMISTRY AT 298.15K
--------------------------

Temperature         ...   298.15 K
Pressure            ...     1.00 atm
Total Mass          ...    16.04 AMU
Quasi RRHO          ...     True
Cut-Off Frequency   ...     1.00 cm^-1

Throughout the following assumptions are being made:
  (1) The electronic state is orbitally nondegenerate
  (2) There are no thermally accessible electronically excited states
  (3) Hindered rotations indicated by low frequency modes are not
      treated as such but are treated as vibrations and this may
      cause some error
  (4) All equations used are the standard statistical mechanics
      equations for an ideal gas
  (5) All vibrations are strictly harmonic

freq.    1337.80  E(vib)   ...       0.01 
freq.    1337.88  E(vib)   ...       0.01 
freq.    1338.86  E(vib)   ...       0.01 
freq.    1559.94  E(vib)   ...       0.00 
freq.    1560.06  E(vib)   ...       0.00 
freq.    3066.55  E(vib)   ...       0.00 
freq.    3180.18  E(vib)   ...       0.00 
freq.    3180.85  E(vib)   ...       0.00 
freq.    3180.91  E(vib)   ...       0.00 

------------
INNER ENERGY
------------

The inner energy is: U= E(el) + E(ZPE) + E(vib) + E(rot) + E(trans)
    E(el)   - is the total energy from the electronic structure calculation
              = E(kin-el) + E(nuc-el) + E(el-el) + E(nuc-nuc)
    E(ZPE)  - the the zero temperature vibrational energy from the frequency calculation
    E(vib)  - the the finite temperature correction to E(ZPE) due to population
              of excited vibrational states
    E(rot)  - is the rotational thermal energy
    E(trans)- is the translational thermal energy

Summary of contributions to the inner energy U:
Electronic energy                ...    -40.48948907 Eh
Zero point energy                ...      0.04497791 Eh      28.22 kcal/mol
Thermal vibrational correction   ...      0.00003641 Eh       0.02 kcal/mol
Thermal rotational correction    ...      0.00141627 Eh       0.89 kcal/mol
Thermal translational correction ...      0.00141627 Eh       0.89 kcal/mol
-----------------------------------------------------------------------
Total thermal energy                    -40.44164221 Eh


Summary of corrections to the electronic energy:
(perhaps to be used in another calculation)
Total thermal correction                  0.00286895 Eh       1.80 kcal/mol
Non-thermal (ZPE) correction              0.04497791 Eh      28.22 kcal/mol
-----------------------------------------------------------------------
Total correction                          0.04784686 Eh      30.02 kcal/mol


--------
ENTHALPY
--------

The enthalpy is H = U + kB*T
                kB is Boltzmann's constant
Total thermal energy              ...    -40.44164221 Eh 
Thermal Enthalpy correction       ...      0.00094421 Eh       0.59 kcal/mol
-----------------------------------------------------------------------
Total Enthalpy                    ...    -40.44069800 Eh


Note: Rotational entropy computed according to Herzberg 
Infrared and Raman Spectra, Chapter V,1, Van Nostrand Reinhold, 1945 
Point Group:  Td, Symmetry Number:  12  
Rotational constants in cm-1:     5.281803     5.281803     5.281803 

Vibrational entropy computed according to the QRRHO of S. Grimme
Chem.Eur.J. 2012 18 9955 using a reference frequency of 100.0 cm-1


-------
ENTROPY
-------

The entropy contributions are T*S = T*(S(el)+S(vib)+S(rot)+S(trans))
     S(el)   - electronic entropy
     S(vib)  - vibrational entropy
     S(rot)  - rotational entropy
     S(trans)- translational entropy
The entropies will be listed as multiplied by the temperature to get
units of energy

Electronic entropy                ...      0.00000000 Eh      0.00 kcal/mol
Vibrational entropy               ...      0.00004188 Eh      0.03 kcal/mol
Rotational entropy                ...      0.00480755 Eh      3.02 kcal/mol
Translational entropy             ...      0.01627961 Eh     10.22 kcal/mol
-----------------------------------------------------------------------
Final entropy term                ...      0.02112905 Eh     13.26 kcal/mol

In case the symmetry of your molecule has not been determined correctly
or in case you have a reason to use a different symmetry number we print 
out the resulting rotational entropy values for sn=1,12:

 non-linear molecules -----------------------------------
|  sn= 1 | S(rot)=       0.00715376 Eh      4.49 kcal/mol|
|  sn= 2 | S(rot)=       0.00649930 Eh      4.08 kcal/mol|
|  sn= 3 | S(rot)=       0.00611647 Eh      3.84 kcal/mol|
|  sn= 4 | S(rot)=       0.00584484 Eh      3.67 kcal/mol|
|  sn= 5 | S(rot)=       0.00563416 Eh      3.54 kcal/mol|
|  sn= 6 | S(rot)=       0.00546201 Eh      3.43 kcal/mol|
|  sn= 7 | S(rot)=       0.00531646 Eh      3.34 kcal/mol|
|  sn= 8 | S(rot)=       0.00519039 Eh      3.26 kcal/mol|
|  sn= 9 | S(rot)=       0.00507918 Eh      3.19 kcal/mol|
|  sn=10 | S(rot)=       0.00497970 Eh      3.12 kcal/mol|
|  sn=11 | S(rot)=       0.00488971 Eh      3.07 kcal/mol|
|  sn=12 | S(rot)=       0.00480755 Eh      3.02 kcal/mol|
 linear molecules ---------------------------------------
|  Dinfh | S(rot)=       0.00375444 Eh      2.36 kcal/mol|
|  Cinfv | S(rot)=       0.00440889 Eh      2.77 kcal/mol|
 --------------------------------------------------------


-------------------
GIBBS FREE ENERGY
-------------------

The Gibbs free energy is G = H - T*S

Total enthalpy                    ...    -40.44069800 Eh 
Total entropy correction          ...     -0.02112905 Eh    -13.26 kcal/mol
-----------------------------------------------------------------------
Final Gibbs free energy         ...    -40.46182705 Eh

For completeness - the Gibbs free energy minus the electronic energy
G-E(el)                           ...      0.02766202 Eh     17.36 kcal/mol



--------------------------------
SUGGESTED CITATIONS FOR THIS RUN
--------------------------------

Below you find a list of papers that are relevant to this ORCA run
We neither can nor want to force you to cite these papers, but we appreciate if you do
You receive ORCA, which is the product of decades of hard work by many enthusiastic individuals, for free
The only thing we kindly ask in return is that you cite our papers,
We deeply appreciate it, if you show your appreciation for ORCA by not just citing the generic ORCA reference.

Please note that relegating all ORCA citations to the supporting information does *not* help us.
SI sections are not indexed - citations you put there will not count into any citation statistics
But we need these citations in order to attract the funding resources that allow us to do what we are doing

Therefore, if you are a happy ORCA user, please consider citing a few of the papers listed below in the main body of your paper

In addition to the list printed below, the program has created the file methane-ir-raman.bibtex that contains the list in bibtex format
You can import this file easily into all common literature databanks and citation aid programs


List of essential papers. We consider these as the minimum necessary citations

  1. Neese, F.
     Software update: the ORCA program system, version 6.0
     WIRES Comput. Molec. Sci. 2025 15(1), e70019
     doi.org/10.1002/wcms.7019

List of papers to cite with high priority. The work reported in these papers was absolutely
necessary for this run to complete.
Our perspective: the developers of density functionals and basis sets usually get cited in chemistry papers
Good! But without the algorithms to do something with them, the functionals or basis sets would not do anything.
Hence, in our opinion, the algorithm design and method developments papers are equally worthy of getting cited

  1. Neese, F.
     An improvement of the resolution of the identity approximation for the formation of the Coulomb matrix
     J. Comp. Chem. 2003 24(14), 1740-1747
     doi.org/10.1002/jcc.10318
  2. Neese, F.; Wennmohs, F.; Hansen, A.; Becker, U.
     Efficient, approximate and parallel Hartree-Fock and hybrid DFT calculations. A 'chain-of-spheres' algorithm for the Hartree-Fock exchange
     Chem. Phys. 2009 356(1-3), 98-109
     doi.org/10.1016/j.chemphys.2008.10.036
  3. Helmich-Paris, B.; de Souza, B.; Neese, F.; Izsák, R.
     An improved chain of spheres for exchange algorithm
     J. Chem. Phys. 2021 155(10), 104109
     doi.org/10.1063/5.0058766
  4. Neese, F.
     The SHARK Integral Generation and Digestion System
     J. Comp. Chem. 2022 44(3), 381
     doi.org/10.1002/jcc.26942

List of suggested additional citations. These are papers that are important in the 'surrounding' of 
of this run, or papers that preceded the highly important papers. If you like your results we are grateful for a citation.

  1. Izsak, R.; Neese, F.
     An overlap fitted chain of spheres exchange method
     J. Chem. Phys. 2011 135 , 144105
     doi.org/10.1063/1.3646921
  2. Izsak, R.; Hansen, A.; Neese, F.
     The resolution of identity and chain of spheres approximations for the LPNO-CCSD singles Fock term
     Molec. Phys. 2012 110 , 2413-2417
     doi.org/10.1080/00268976.2012.687466
  3. Neese, F.
     The ORCA program system
     WIRES Comput. Molec. Sci. 2012 2(1), 73-78
     doi.org/10.1002/wcms.81
  4. Izsak, R.; Neese, F.; Klopper, W.
     Robust fitting techniques in the chain of spheres approximation to the Fock exchange: The role of the complementary space
     J. Chem. Phys. 2013 139 , 
     doi.org/10.1063/1.4819264
  5. Neese, F.
     Software update: the ORCA program system, version 4.0
     WIRES Comput. Molec. Sci. 2018 8(1), 1-6
     doi.org/10.1002/wcms.1327
  6. Neese, F.; Wennmohs, F.; Becker, U.; Riplinger, C.
     The ORCA quantum chemistry program package
     J. Chem. Phys. 2020 152(22), 224108
     doi.org/10.1063/5.0004608
  7. Neese, F.
     Software update: The ORCA program system—Version 5.0
     WIRES Comput. Molec. Sci. 2022 12(1), e1606
     doi.org/10.1002/wcms.1606

List of optional additional citations

  1. Neese, F.
     Approximate second-order SCF convergence for spin unrestricted wavefunctions
     Chem. Phys. Lett. 2000 325(1-3), 93-98
     doi.org/10.1016/s0009-2614(00)00662-x

Timings for individual modules:

Sum of individual times          ...       73.584 sec (=   1.226 min)
Startup calculation              ...        0.436 sec (=   0.007 min)   0.6 %
SCF iterations                   ...        2.831 sec (=   0.047 min)   3.8 %
SCF Response                     ...        0.277 sec (=   0.005 min)   0.4 %
Property calculations            ...        0.045 sec (=   0.001 min)   0.1 %
SCF Gradient evaluation          ...        1.655 sec (=   0.028 min)   2.2 %
Numerical frequency calculation  ...       68.341 sec (=   1.139 min)  92.9 %
                             ****ORCA TERMINATED NORMALLY****
TOTAL RUN TIME: 0 days 0 hours 1 minutes 11 seconds 299 msec
